+ 0.2 0 1 cbr 500 ------- 0 0.0 1.0 0 0
- 0.2 0 1 cbr 500 ------- 0 0.0 1.0 0 0
+ 0.205 0 1 cbr 500 ------- 0 0.0 1.0 1 1
- 0.205 0 1 cbr 500 ------- 0 0.0 1.0 1 1
+ 0.21 0 1 cbr 500 ------- 0 0.0 1.0 2 2
- 0.21 0 1 cbr 500 ------- 0 0.0 1.0 2 2
r 0.214 0 1 cbr 500 ------- 0 0.0 1.0 0 0
+ 0.215 0 1 cbr 500 ------- 0 0.0 1.0 3 3
- 0.215 0 1 cbr 500 ------- 0 0.0 1.0 3 3
r 0.219 0 1 cbr 500 ------- 0 0.0 1.0 1 1
+ 0.22 0 1 cbr 500 ------- 0 0.0 1.0 4 4
- 0.22 0 1 cbr 500 ------- 0 0.0 1.0 4 4
r 0.224 0 1 cbr 500 ------- 0 0.0 1.0 2 2
+ 0.225 0 1 cbr 500 ------- 0 0.0 1.0 5 5
- 0.225 0 1 cbr 500 ------- 0 0.0 1.0 5 5
r 0.229 0 1 cbr 500 ------- 0 0.0 1.0 3 3
+ 0.23 0 1 cbr 500 ------- 0 0.0 1.0 6 6
- 0.23 0 1 cbr 500 ------- 0 0.0 1.0 6 6
r 0.234 0 1 cbr 500 ------- 0 0.0 1.0 4 4
+ 0.235 0 1 cbr 500 ------- 0 0.0 1.0 7 7
- 0.235 0 1 cbr 500 ------- 0 0.0 1.0 7 7
r 0.239 0 1 cbr 500 ------- 0 0.0 1.0 5 5
+ 0.24 0 1 cbr 500 ------- 0 0.0 1.0 8 8
- 0.24 0 1 cbr 500 ------- 0 0.0 1.0 8 8
r 0.244 0 1 cbr 500 ------- 0 0.0 1.0 6 6
+ 0.245 0 1 cbr 500 ------- 0 0.0 1.0 9 9
- 0.245 0 1 cbr 500 ------- 0 0.0 1.0 9 9
r 0.249 0 1 cbr 500 ------- 0 0.0 1.0 7 7
+ 0.25 0 1 cbr 500 ------- 0 0.0 1.0 10 10
- 0.25 0 1 cbr 500 ------- 0 0.0 1.0 10 10
r 0.254 0 1 cbr 500 ------- 0 0.0 1.0 8 8
+ 0.255 0 1 cbr 500 ------- 0 0.0 1.0 11 11
- 0.255 0 1 cbr 500 ------- 0 0.0 1.0 11 11
r 0.259 0 1 cbr 500 ------- 0 0.0 1.0 9 9
+ 0.26 0 1 cbr 500 ------- 0 0.0 1.0 12 12
- 0.26 0 1 cbr 500 ------- 0 0.0 1.0 12 12
r 0.264 0 1 cbr 500 ------- 0 0.0 1.0 10 10
+ 0.265 0 1 cbr 500 ------- 0 0.0 1.0 13 13
- 0.265 0 1 cbr 500 ------- 0 0.0 1.0 13 13
r 0.269 0 1 cbr 500 ------- 0 0.0 1.0 11 11
+ 0.27 0 1 cbr 500 ------- 0 0.0 1.0 14 14
- 0.27 0 1 cbr 500 ------- 0 0.0 1.0 14 14
r 0.274 0 1 cbr 500 ------- 0 0.0 1.0 12 12
+ 0.275 0 1 cbr 500 ------- 0 0.0 1.0 15 15
- 0.275 0 1 cbr 500 ------- 0 0.0 1.0 15 15
r 0.279 0 1 cbr 500 ------- 0 0.0 1.0 13 13
+ 0.28 0 1 cbr 500 ------- 0 0.0 1.0 16 16
- 0.28 0 1 cbr 500 ------- 0 0.0 1.0 16 16
r 0.284 0 1 cbr 500 ------- 0 0.0 1.0 14 14
+ 0.285 0 1 cbr 500 ------- 0 0.0 1.0 17 17
- 0.285 0 1 cbr 500 ------- 0 0.0 1.0 17 17
r 0.289 0 1 cbr 500 ------- 0 0.0 1.0 15 15
+ 0.29 0 1 cbr 500 ------- 0 0.0 1.0 18 18
- 0.29 0 1 cbr 500 ------- 0 0.0 1.0 18 18
r 0.294 0 1 cbr 500 ------- 0 0.0 1.0 16 16
+ 0.295 0 1 cbr 500 ------- 0 0.0 1.0 19 19
- 0.295 0 1 cbr 500 ------- 0 0.0 1.0 19 19
r 0.299 0 1 cbr 500 ------- 0 0.0 1.0 17 17
+ 0.3 0 1 cbr 500 ------- 0 0.0 1.0 20 20
- 0.3 0 1 cbr 500 ------- 0 0.0 1.0 20 20
r 0.304 0 1 cbr 500 ------- 0 0.0 1.0 18 18
+ 0.305 0 1 cbr 500 ------- 0 0.0 1.0 21 21
- 0.305 0 1 cbr 500 ------- 0 0.0 1.0 21 21
r 0.309 0 1 cbr 500 ------- 0 0.0 1.0 19 19
+ 0.31 0 1 cbr 500 ------- 0 0.0 1.0 22 22
- 0.31 0 1 cbr 500 ------- 0 0.0 1.0 22 22
r 0.314 0 1 cbr 500 ------- 0 0.0 1.0 20 20
+ 0.315 0 1 cbr 500 ------- 0 0.0 1.0 23 23
- 0.315 0 1 cbr 500 ------- 0 0.0 1.0 23 23
r 0.319 0 1 cbr 500 ------- 0 0.0 1.0 21 21
+ 0.32 0 1 cbr 500 ------- 0 0.0 1.0 24 24
- 0.32 0 1 cbr 500 ------- 0 0.0 1.0 24 24
r 0.324 0 1 cbr 500 ------- 0 0.0 1.0 22 22
+ 0.325 0 1 cbr 500 ------- 0 0.0 1.0 25 25
- 0.325 0 1 cbr 500 ------- 0 0.0 1.0 25 25
r 0.329 0 1 cbr 500 ------- 0 0.0 1.0 23 23
+ 0.33 0 1 cbr 500 ------- 0 0.0 1.0 26 26
- 0.33 0 1 cbr 500 ------- 0 0.0 1.0 26 26
r 0.334 0 1 cbr 500 ------- 0 0.0 1.0 24 24
+ 0.335 0 1 cbr 500 ------- 0 0.0 1.0 27 27
- 0.335 0 1 cbr 500 ------- 0 0.0 1.0 27 27
r 0.339 0 1 cbr 500 ------- 0 0.0 1.0 25 25
+ 0.34 0 1 cbr 500 ------- 0 0.0 1.0 28 28
- 0.34 0 1 cbr 500 ------- 0 0.0 1.0 28 28
r 0.344 0 1 cbr 500 ------- 0 0.0 1.0 26 26
+ 0.345 0 1 cbr 500 ------- 0 0.0 1.0 29 29
- 0.345 0 1 cbr 500 ------- 0 0.0 1.0 29 29
r 0.349 0 1 cbr 500 ------- 0 0.0 1.0 27 27
+ 0.35 0 1 cbr 500 ------- 0 0.0 1.0 30 30
- 0.35 0 1 cbr 500 ------- 0 0.0 1.0 30 30
r 0.354 0 1 cbr 500 ------- 0 0.0 1.0 28 28
+ 0.355 0 1 cbr 500 ------- 0 0.0 1.0 31 31
- 0.355 0 1 cbr 500 ------- 0 0.0 1.0 31 31
r 0.359 0 1 cbr 500 ------- 0 0.0 1.0 29 29
+ 0.36 0 1 cbr 500 ------- 0 0.0 1.0 32 32
- 0.36 0 1 cbr 500 ------- 0 0.0 1.0 32 32
r 0.364 0 1 cbr 500 ------- 0 0.0 1.0 30 30
+ 0.365 0 1 cbr 500 ------- 0 0.0 1.0 33 33
- 0.365 0 1 cbr 500 ------- 0 0.0 1.0 33 33
r 0.369 0 1 cbr 500 ------- 0 0.0 1.0 31 31
+ 0.37 0 1 cbr 500 ------- 0 0.0 1.0 34 34
- 0.37 0 1 cbr 500 ------- 0 0.0 1.0 34 34
r 0.374 0 1 cbr 500 ------- 0 0.0 1.0 32 32
+ 0.375 0 1 cbr 500 ------- 0 0.0 1.0 35 35
- 0.375 0 1 cbr 500 ------- 0 0.0 1.0 35 35
r 0.379 0 1 cbr 500 ------- 0 0.0 1.0 33 33
+ 0.38 0 1 cbr 500 ------- 0 0.0 1.0 36 36
- 0.38 0 1 cbr 500 ------- 0 0.0 1.0 36 36
r 0.384 0 1 cbr 500 ------- 0 0.0 1.0 34 34
+ 0.385 0 1 cbr 500 ------- 0 0.0 1.0 37 37
- 0.385 0 1 cbr 500 ------- 0 0.0 1.0 37 37
r 0.389 0 1 cbr 500 ------- 0 0.0 1.0 35 35
+ 0.39 0 1 cbr 500 ------- 0 0.0 1.0 38 38
- 0.39 0 1 cbr 500 ------- 0 0.0 1.0 38 38
r 0.394 0 1 cbr 500 ------- 0 0.0 1.0 36 36
+ 0.395 0 1 cbr 500 ------- 0 0.0 1.0 39 39
- 0.395 0 1 cbr 500 ------- 0 0.0 1.0 39 39
r 0.399 0 1 cbr 500 ------- 0 0.0 1.0 37 37
+ 0.4 0 1 cbr 500 ------- 0 0.0 1.0 40 40
- 0.4 0 1 cbr 500 ------- 0 0.0 1.0 40 40
r 0.404 0 1 cbr 500 ------- 0 0.0 1.0 38 38
+ 0.405 0 1 cbr 500 ------- 0 0.0 1.0 41 41
- 0.405 0 1 cbr 500 ------- 0 0.0 1.0 41 41
r 0.409 0 1 cbr 500 ------- 0 0.0 1.0 39 39
+ 0.41 0 1 cbr 500 ------- 0 0.0 1.0 42 42
- 0.41 0 1 cbr 500 ------- 0 0.0 1.0 42 42
r 0.414 0 1 cbr 500 ------- 0 0.0 1.0 40 40
+ 0.415 0 1 cbr 500 ------- 0 0.0 1.0 43 43
- 0.415 0 1 cbr 500 ------- 0 0.0 1.0 43 43
r 0.419 0 1 cbr 500 ------- 0 0.0 1.0 41 41
+ 0.42 0 1 cbr 500 ------- 0 0.0 1.0 44 44
- 0.42 0 1 cbr 500 ------- 0 0.0 1.0 44 44
r 0.424 0 1 cbr 500 ------- 0 0.0 1.0 42 42
+ 0.425 0 1 cbr 500 ------- 0 0.0 1.0 45 45
- 0.425 0 1 cbr 500 ------- 0 0.0 1.0 45 45
r 0.429 0 1 cbr 500 ------- 0 0.0 1.0 43 43
+ 0.43 0 1 cbr 500 ------- 0 0.0 1.0 46 46
- 0.43 0 1 cbr 500 ------- 0 0.0 1.0 46 46
r 0.434 0 1 cbr 500 ------- 0 0.0 1.0 44 44
+ 0.435 0 1 cbr 500 ------- 0 0.0 1.0 47 47
- 0.435 0 1 cbr 500 ------- 0 0.0 1.0 47 47
r 0.439 0 1 cbr 500 ------- 0 0.0 1.0 45 45
+ 0.44 0 1 cbr 500 ------- 0 0.0 1.0 48 48
- 0.44 0 1 cbr 500 ------- 0 0.0 1.0 48 48
r 0.444 0 1 cbr 500 ------- 0 0.0 1.0 46 46
+ 0.445 0 1 cbr 500 ------- 0 0.0 1.0 49 49
- 0.445 0 1 cbr 500 ------- 0 0.0 1.0 49 49
r 0.449 0 1 cbr 500 ------- 0 0.0 1.0 47 47
+ 0.45 0 1 cbr 500 ------- 0 0.0 1.0 50 50
- 0.45 0 1 cbr 500 ------- 0 0.0 1.0 50 50
r 0.454 0 1 cbr 500 ------- 0 0.0 1.0 48 48
+ 0.455 0 1 cbr 500 ------- 0 0.0 1.0 51 51
- 0.455 0 1 cbr 500 ------- 0 0.0 1.0 51 51
r 0.459 0 1 cbr 500 ------- 0 0.0 1.0 49 49
+ 0.46 0 1 cbr 500 ------- 0 0.0 1.0 52 52
- 0.46 0 1 cbr 500 ------- 0 0.0 1.0 52 52
r 0.464 0 1 cbr 500 ------- 0 0.0 1.0 50 50
+ 0.465 0 1 cbr 500 ------- 0 0.0 1.0 53 53
- 0.465 0 1 cbr 500 ------- 0 0.0 1.0 53 53
r 0.469 0 1 cbr 500 ------- 0 0.0 1.0 51 51
+ 0.47 0 1 cbr 500 ------- 0 0.0 1.0 54 54
- 0.47 0 1 cbr 500 ------- 0 0.0 1.0 54 54
r 0.474 0 1 cbr 500 ------- 0 0.0 1.0 52 52
+ 0.475 0 1 cbr 500 ------- 0 0.0 1.0 55 55
- 0.475 0 1 cbr 500 ------- 0 0.0 1.0 55 55
r 0.479 0 1 cbr 500 ------- 0 0.0 1.0 53 53
+ 0.48 0 1 cbr 500 ------- 0 0.0 1.0 56 56
- 0.48 0 1 cbr 500 ------- 0 0.0 1.0 56 56
r 0.484 0 1 cbr 500 ------- 0 0.0 1.0 54 54
+ 0.485 0 1 cbr 500 ------- 0 0.0 1.0 57 57
- 0.485 0 1 cbr 500 ------- 0 0.0 1.0 57 57
r 0.489 0 1 cbr 500 ------- 0 0.0 1.0 55 55
+ 0.49 0 1 cbr 500 ------- 0 0.0 1.0 58 58
- 0.49 0 1 cbr 500 ------- 0 0.0 1.0 58 58
r 0.494 0 1 cbr 500 ------- 0 0.0 1.0 56 56
+ 0.495 0 1 cbr 500 ------- 0 0.0 1.0 59 59
- 0.495 0 1 cbr 500 ------- 0 0.0 1.0 59 59
r 0.499 0 1 cbr 500 ------- 0 0.0 1.0 57 57
r 0.504 0 1 cbr 500 ------- 0 0.0 1.0 58 58
r 0.509 0 1 cbr 500 ------- 0 0.0 1.0 59 59
